597
 after         150 steps, 
    C  19.913976   1.021241   8.210394   0.069460   0.020724   0.138582 
    O  19.409909  -0.196120   7.639245  -0.025393   0.032914   0.103786 
    C  20.409838  -0.681992   6.785176   0.029910  -0.077479  -0.035796 
    N  19.380653  -1.212213   5.910852  -0.101054  -0.074850   0.135983 
    C  19.621980  -0.786365   4.530535  -0.085865   0.077375   0.027412 
    C  19.201425   0.691551   4.318944  -0.077127   0.041654  -0.005969 
    O  19.640566   1.136944   3.038096   0.030687  -0.070786  -0.041933 
    C  17.669162   0.830782   4.492823  -0.096355   0.038491  -0.031969 
    O  17.420670   0.687081   5.907841  -0.046575   0.126409  -0.053409 
    C  16.209901   1.349338   6.320217  -0.021353   0.073418   0.061997 
    C  16.128490   1.201959   7.849289   0.123089   0.026665   0.003749 
    N  16.129298  -0.216502   8.221942   0.066941   0.008019  -0.064111 
    C  14.875579   1.883340   8.399834   0.034885  -0.022174  -0.009150 
    O  14.906538   1.886343   9.826089   0.141725   0.013495   0.007520 
    C  14.770661   3.329532   7.897972   0.000965   0.039521  -0.038563 
    O  13.473331   3.758486   8.333651  -0.047210  -0.051890   0.119051 
    C  13.304837   5.170989   8.290517  -0.028008  -0.005490  -0.008022 
    C  12.243763   5.441224   7.232492  -0.078910  -0.058813  -0.003226 
    N  12.662587   4.807191   5.958327  -0.054229  -0.054168   0.113715 
    C  11.998598   6.956674   7.126733  -0.137651  -0.006953  -0.074600 
    O  10.892092   7.201008   6.241035  -0.058950  -0.099274   0.066411 
    C  11.681662   7.573123   8.516152  -0.004031  -0.054908   0.049384 
    O  11.763073   8.983670   8.275176  -0.007314   0.046975   0.003656 
    C  10.954760   9.792363   9.143605  -0.007313  -0.030305   0.038104 
    C  11.918724  10.537554  10.068215  -0.003472   0.034706   0.100208 
    N  12.759915   9.565769  10.797516  -0.103747   0.107699   0.056648 
    C  11.120860  11.411350  11.036436  -0.010346   0.027436   0.135791 
    O  12.024273  12.182442  11.810901   0.027352   0.059019  -0.018536 
    C  10.154336  12.347180  10.302368  -0.032856   0.041767  -0.009096 
    O   9.301856  12.834309  11.371112   0.007027   0.037081  -0.027193 
    C   8.783187  14.162475  11.143882   0.005758   0.001860   0.007524 
    C   7.290277  14.045453  10.832589  -0.054433   0.046701  -0.090869 
    N   7.089750  13.190676   9.649597   0.080885  -0.053943  -0.005200 
    C   6.722191  15.452503  10.573662   0.011517  -0.000131  -0.097485 
    O   5.318402  15.370834  10.356984   0.025718  -0.012177   0.001648 
    C   7.000143  16.398721  11.759768   0.019096  -0.019792  -0.098139 
    O   6.649367  17.700785  11.242667  -0.028317   0.097640  -0.082657 
    C   6.161011  18.585425  12.262176   0.063160   0.115295   0.004003 
    C   7.220067  19.678361  12.534728   0.002851  -0.026528   0.033889 
    N   8.487125  19.030635  12.907616  -0.022967  -0.001183   0.124444 
    C   6.704716  20.605229  13.650515   0.035822  -0.050195   0.035522 
    O   7.617307  21.670496  13.823694   0.128285   0.022281   0.034582 
    C   5.324983  21.188834  13.292603   0.056675  -0.040163   0.033957 
    O   4.894468  21.784920  14.539912  -0.027126  -0.067516   0.017220 
    C   4.110108  22.966356  14.366832  -0.045668   0.016196   0.057623 
    C   2.650297  22.640978  14.724240  -0.094536   0.030678  -0.045370 
    N   2.166947  21.519530  13.908110  -0.093233   0.051383  -0.115872 
    C   1.784297  23.897981  14.521666  -0.011873  -0.018134  -0.071066 
    O   0.465445  23.634122  14.989076  -0.064929   0.037775  -0.127076 
    C   2.394711  25.073753  15.310979  -0.038143  -0.026447  -0.043882 
    O   1.716848  26.261309  14.925354  -0.012867   0.083067   0.024823 
    C   3.889045  25.212309  14.978537   0.055350  -0.052033   0.090409 
    C   4.515737  26.323706  15.847601  -0.032581  -0.020315  -0.000228 
    O   5.893589  26.459870  15.538421   0.017955  -0.127599   0.172793 
    O   4.588118  23.984110  15.262346   0.004041  -0.076960   0.049743 
    C   4.359720  20.056400  12.798236   0.010015  -0.024825  -0.105281 
    C   3.074314  20.572707  12.083418   0.110984   0.046019  -0.139149 
    O   2.513502  21.760388  12.629473   0.128575   0.049054  -0.085495 
    O   4.990215  19.227668  11.788280  -0.007639  -0.022446  -0.053208 
    C   8.503493  16.279609  12.195714   0.031708   0.037877  -0.002706 
    C   8.834224  16.906997  13.584233  -0.081557  -0.054757   0.053583 
    O   8.191782  18.156660  13.884704  -0.098166  -0.101063   0.042190 
    O   8.926230  14.912198  12.354280  -0.007310  -0.127805  -0.044904 
    C   9.372030  11.560182   9.193612  -0.020402  -0.030691  -0.042733 
    C   8.632551  12.463581   8.157178  -0.028895  -0.079870   0.059443 
    O   7.962477  13.609254   8.710299   0.115468  -0.033448  -0.040526 
    O  10.240376  10.756269   8.360599   0.088795  -0.063412   0.027071 
    C  12.739504   7.060491   9.556072   0.009974   0.003125   0.089536 
    C  12.407252   7.356261  11.042206   0.071827   0.026808   0.111273 
    O  11.892837   8.660035  11.304986  -0.045711  -0.039443   0.029092 
    O  12.825112   5.631871   9.551481   0.056059  -0.084706   0.011774 
    C  14.969446   3.361517   6.347890  -0.126661  -0.053051  -0.129324 
    C  15.021769   4.800906   5.743716  -0.187869  -0.125354  -0.097174 
    O  13.746315   5.450595   5.431500  -0.069148  -0.138275  -0.044687 
    O  16.238540   2.763375   6.009214  -0.059249  -0.064554  -0.014618 
    C  16.868757  -0.264498   3.707007   0.061066   0.078701  -0.083753 
    C  16.715686   0.119602   2.210811  -0.015968   0.016746  -0.119234 
    O  15.875005   1.249259   2.060775  -0.018329   0.071347  -0.082076 
    O  17.406001  -1.603931   3.879581   0.007527   0.083086  -0.011280 
    C  18.811929  -1.719609   3.597042   0.025686   0.025069   0.062832 
    O  19.100616  -1.470494   2.209382   0.083639   0.090287   0.070179 
    C  20.296171  -2.187275   1.796400  -0.052877   0.030818   0.042214 
    C  21.134898  -1.253864   0.877699  -0.069891   0.044432  -0.044707 
    C  22.637706  -1.665906   0.780008  -0.118872  -0.006382   0.027649 
    O  23.283266  -1.396677   2.017464  -0.015736   0.091430  -0.004172 
    O  20.515619  -1.079740  -0.425470  -0.043373  -0.069465  -0.052616 
    C  20.250092  -2.315610  -1.131062  -0.007249  -0.064369  -0.060597 
    O  21.469050  -3.018680  -1.447926  -0.048464  -0.023561  -0.023993 
    C  21.338250  -3.779149  -2.660946  -0.011128  -0.038376  -0.039997 
    C  22.239749  -5.038079  -2.477902  -0.002227   0.060888  -0.013793 
    C  21.844612  -6.217866  -3.420105   0.127392   0.053459   0.003726 
    O  20.566478  -6.720754  -3.050751   0.153888  -0.079380   0.073241 
    O  23.641558  -4.684996  -2.525612   0.026304  -0.044042  -0.154300 
    C  24.020307  -3.996731  -3.736134   0.051271   0.014257  -0.131522 
    O  23.878070  -4.806653  -4.893936   0.000290   0.061378   0.003070 
    C  23.262911  -2.687066  -3.921786  -0.156844   0.081689  -0.056140 
    N  23.640474  -1.761005  -2.857597  -0.111665  -0.061135  -0.028853 
    C  21.733738  -2.903574  -3.888885   0.002396  -0.000286   0.050291 
    O  21.296502  -3.514519  -5.096382  -0.025929  -0.113114   0.023714 
    C  19.300628  -3.210810  -0.318394  -0.012895  -0.107750   0.011304 
    N  18.007051  -2.542679  -0.192106   0.083244   0.039228  -0.002966 
    C  19.873840  -3.496301   1.076987  -0.017223  -0.047630   0.125759 
    O  20.990599  -4.378692   0.969223   0.011684   0.084841   0.027747 
    O  20.477607  -1.816201   7.442790  -0.045606   0.081652   0.013026 
    H  20.159247   1.725254   7.420131   0.014357   0.177922   0.264437 
    H  19.156391   1.488888   8.849509   0.201834  -0.421374   0.382026 
    H  20.797603   0.814535   8.815249   0.175586   0.031342  -0.177595 
    H  18.494499  -0.797081   6.218403   0.083499   0.082563  -0.222733 
    H  20.675944  -0.897614   4.311986   0.110319   0.200947  -0.081554 
    H  19.695941   1.332800   5.054095  -0.105918  -0.167745   0.311454 
    H  19.246766   2.044698   2.942603   0.190240  -0.200738  -0.171133 
    H  17.371820   1.820053   4.144252  -0.043775   0.069340   0.019082 
    H  15.346071   0.878374   5.850762   0.042390  -0.089039   0.235142 
    H  17.004750   1.678647   8.290408   0.119746   0.148659   0.080220 
    H  15.942925  -0.251883   9.227443   0.262293  -0.083940  -0.061970 
    H  15.320125  -0.647791   7.765763   0.163400   0.172916  -0.053168 
    H  13.996824   1.336832   8.057899   0.053255  -0.186879   0.143968 
    H  14.083400   2.351843  10.109709   0.232319  -0.021334  -0.274065 
    H  15.543249   3.929125   8.393595   0.169515  -0.009767  -0.273424 
    H  14.238979   5.678967   8.064580  -0.232391   0.083223  -0.141598 
    H  11.312927   4.964418   7.543465  -0.005084  -0.043608   0.092756 
    H  11.890107   4.934177   5.306593  -0.039840   0.108916   0.064438 
    H  12.892745   7.434809   6.710163  -0.211504   0.012239   0.036621 
    H  10.805668   8.180998   6.205042  -0.007675  -0.117869   0.096489 
    H  10.677202   7.287983   8.830499   0.113041  -0.253545  -0.104724 
    H  10.233140   9.188236   9.715992   0.043793  -0.176652  -0.008664 
    H  12.563619  11.182586   9.471599  -0.029993  -0.084500   0.027932 
    H  13.199010  10.051487  11.578174  -0.342009   0.270766   0.206532 
    H  10.540209  10.765630  11.715464  -0.065151  -0.028272   0.194380 
    H  11.460075  12.716564  12.418252  -0.044394  -0.078118  -0.159092 
    H  10.721373  13.155941   9.843564   0.103458   0.032200   0.103908 
    H   9.315847  14.673611  10.333933   0.073571   0.034078   0.151624 
    H   6.787032  13.592450  11.685628  -0.243569   0.170617  -0.120885 
    H   6.144754  13.327371   9.293962   0.247377   0.446779   0.083320 
    H   7.195165  15.845141   9.672907  -0.084936   0.313731  -0.073648 
    H   5.043582  16.292741  10.165309   0.031441   0.085228  -0.045088 
    H   6.346877  16.109939  12.589422   0.009977  -0.024182  -0.172645 
    H   5.924393  18.055376  13.182674  -0.121980  -0.066237  -0.104267 
    H   7.376680  20.261496  11.624957   0.067368   0.038122   0.159430 
    H   9.102755  19.742686  13.295231  -0.231190   0.031318   0.466375 
    H   6.625859  20.044559  14.586002   0.095716  -0.033004  -0.055826 
    H   7.241634  22.216596  14.553495  -0.011429  -0.072054  -0.104198 
    H   5.456022  21.927596  12.507990   0.117280  -0.095142   0.138443 
    H   4.169185  23.342795  13.342585   0.174043  -0.156627   0.067711 
    H   2.607677  22.347180  15.767627  -0.258672   0.043267  -0.121484 
    H   1.149375  21.510661  13.954942  -0.062877   0.392004  -0.239966 
    H   1.755193  24.161498  13.463562  -0.026014  -0.133874  -0.042457 
    H   0.001578  24.498815  14.917165  -0.084752   0.029376  -0.295083 
    H   2.265829  24.903272  16.380463  -0.016696  -0.093656  -0.083806 
    H   2.115323  26.983786  15.457725   0.425162  -0.152643  -0.001076 
    H   4.003864  25.464301  13.919747   0.129772   0.194670   0.254319 
    H   4.023650  27.268071  15.644109  -0.010115  -0.170320   0.008694 
    H   4.409360  26.080870  16.902161  -0.197747  -0.144464  -0.024101 
    H   6.219519  27.171850  16.136429  -0.188474  -0.071929   0.200925 
    H   4.059974  19.434672  13.643461   0.109987   0.035073   0.058389 
    H   3.322133  20.786106  11.047372   0.220079   0.185110  -0.108986 
    H   2.319464  19.783172  12.103505   0.151243   0.132434  -0.112812 
    H   9.132846  16.755739  11.439597  -0.008480   0.085508   0.148266 
    H   8.524927  16.193345  14.351014  -0.020455  -0.069408   0.121332 
    H   9.917844  17.043285  13.649093  -0.159453  -0.072710   0.179832 
    H   8.634071  10.910457   9.676749  -0.029582  -0.067839   0.028053 
    H   9.371317  12.824591   7.434129  -0.083300  -0.063723  -0.123863 
    H   7.910829  11.852354   7.620056  -0.051243   0.023906   0.249897 
    H  13.714084   7.496281   9.313850   0.108794   0.034156   0.040122 
    H  11.663193   6.639097  11.378406   0.138585  -0.024073   0.141286 
    H  13.305625   7.208751  11.639045   0.140099   0.193687  -0.078473 
    H  14.172917   2.792930   5.863715  -0.058518   0.038673  -0.002988 
    H  15.586295   5.443058   6.412791  -0.126598  -0.142511  -0.055737 
    H  15.573010   4.740187   4.804970  -0.127094  -0.091511   0.007800 
    H  15.854053  -0.304239   4.107045   0.162701   0.153845  -0.028419 
    H  17.680553   0.364195   1.767791   0.097745  -0.182888  -0.160139 
    H  16.291583  -0.720308   1.664664  -0.349484  -0.087988  -0.150067 
    H  15.813472   1.389981   1.088497   0.207897   0.162246  -0.117599 
    H  19.076175  -2.755841   3.822302   0.125948   0.209820   0.200355 
    H  20.906718  -2.439883   2.667971  -0.054070  -0.049192  -0.094074 
    H  21.133114  -0.261046   1.346123  -0.126531  -0.017384  -0.147772 
    H  22.756454  -2.719886   0.545303  -0.352494  -0.020459   0.259422 
    H  23.113629  -1.060519   0.007141   0.010624  -0.467282  -0.061383 
    H  24.226442  -1.652356   1.886480  -0.093743  -0.023146  -0.285731 
    H  19.747423  -2.045924  -2.064469  -0.095532  -0.009647   0.025729 
    H  20.304040  -4.103861  -2.785764   0.115626  -0.248150  -0.010000 
    H  22.066189  -5.403817  -1.466396  -0.063546   0.088820   0.111316 
    H  21.796304  -5.890332  -4.449368   0.050281   0.165708  -0.012365 
    H  22.587819  -7.014727  -3.332739  -0.043569   0.267314  -0.086138 
    H  20.356839  -7.404226  -3.735324   0.315180   0.033477   0.318808 
    H  25.080400  -3.749851  -3.659262  -0.116011  -0.035327   0.055359 
    H  22.899264  -4.890595  -5.004774  -0.157637   0.045702  -0.155342 
    H  23.541026  -2.256881  -4.887938  -0.145947   0.301931   0.029634 
    H  24.646618  -1.724336  -2.877557   0.114395   0.291246   0.123361 
    H  23.388032  -2.225848  -1.996453   0.149161   0.142319   0.110392 
    H  21.255582  -1.926799  -3.813107  -0.227514  -0.080361   0.144197 
    H  20.337121  -3.669542  -4.972611  -0.229906   0.084641   0.142750 
    H  19.159658  -4.153968  -0.836325  -0.229525  -0.167900  -0.177194 
    H  17.391147  -3.128296   0.411354   0.324489  -0.359274  -0.228927 
    H  18.160787  -1.674091   0.347102   0.411710  -0.103110  -0.045207 
    H  19.114949  -4.000438   1.674896  -0.113980  -0.022880   0.071376 
    H  21.246746  -4.557312   1.900676   0.127922  -0.083670   0.114767 
    C   6.571020   0.025174  -2.348717  -0.191198  -0.178255   0.315226 
    C   5.733321   1.267101  -2.504908  -0.067670   0.275986  -0.676321 
    C   5.381979   4.229061  -2.198659   0.032290  -0.360582  -0.444901 
    C   3.975558   4.634957  -2.598863  -0.340684  -0.113964  -0.256811 
    C   2.089567   6.807490  -2.328071   0.157541  -0.318612  -0.121295 
    C   0.709138   6.435282  -2.590355  -0.605401   0.163046   0.262525 
    C  -2.009288   6.935932  -2.538759   0.150284   0.150504   0.049983 
    C  -3.113959   5.789669  -2.654241   0.028660   0.521645   0.032376 
    C  -4.164457   3.460263  -2.296071  -0.088595  -0.324846   0.492750 
    C  -5.573721   3.044370  -2.671510   0.095726  -0.069667  -0.445360 
    C  -6.544987   0.126873  -2.286276  -0.151059   0.136476  -0.079266 
    C  -5.929884  -1.212835  -2.675066  -0.394033  -0.530206   0.139023 
    C  -4.391161  -3.495444  -2.647710   0.463469  -0.240014   0.118517 
    C  -4.433422  -5.024152  -2.431483   0.012847   0.071651  -0.036666 
    C  -1.871315  -5.916269  -2.733714   0.488934  -0.074604   0.062240 
    C  -0.649221  -6.879637  -2.550529   0.109183   0.459195   0.058563 
    C   1.911427  -6.684787  -2.379183   0.004355   0.063621  -0.056305 
    C   2.732397  -5.407445  -2.651104   0.050231  -0.408364   0.215363 
    C   5.359851  -4.065745  -2.432214  -0.178415  -0.160004  -0.180304 
    C   5.191188  -2.562130  -2.696039  -0.471408   0.019671  -0.102610 
    C   6.061210   2.076499  -1.271403  -0.178110   0.037168   0.204385 
    C   4.834456   3.027401  -1.448812  -0.161807   0.048289  -0.102857 
    C   3.773626   5.544286  -1.416360  -0.319464   0.057850   0.126589 
    C   2.192636   5.623802  -1.459789  -0.040715  -0.317935   0.254732 
    C   0.110062   7.311222  -1.375096  -0.163415  -0.270329  -0.037412 
    C  -1.166393   6.427069  -1.378388   0.356877  -0.336445  -0.444305 
    C  -3.221932   5.114311  -1.254029  -0.152823   0.111416   0.067612 
    C  -4.688636   4.627150  -1.419765   0.179511  -0.144370  -0.082625 
    C  -6.095931   2.160585  -1.562831  -0.168273   0.261484   0.246306 
    C  -5.333375   0.861056  -1.750045   0.140162   0.071970   0.044568 
    C  -4.877706  -1.604353  -1.544227  -0.237258  -0.560189  -0.278755 
    C  -5.227438  -3.184491  -1.403063  -0.132349   0.233014  -0.351776 
    C  -3.190966  -4.872709  -1.537530  -0.308206  -0.594656   0.021394 
    C  -2.805120  -6.399280  -1.570578   0.136347   0.203976  -0.148494 
    C  -0.271309  -5.975784  -1.340700   0.021599  -0.057068  -0.300907 
    C   1.207633  -5.861629  -1.369180   0.384514   0.490983   0.185565 
    C   3.762789  -5.567025  -1.496246   0.066052  -0.032341   0.064796 
    C   4.075684  -4.046244  -1.672917  -0.005190   0.181050   0.280600 
    C   5.984392  -1.989063  -1.442377  -0.537101  -0.121538  -0.081853 
    C   5.422101  -0.534900  -1.467877  -0.116665  -0.108018  -0.059425 
    C   5.013138   3.884817  -0.175730   0.143588  -0.027746  -0.205022 
    C   3.625988   4.494314  -0.290711  -0.279215  -0.120490  -0.130985 
    C   2.062831   6.648842  -0.287361  -0.314270  -0.288241   0.226958 
    C   0.535858   6.271824  -0.274467   0.252957   0.001842  -0.165908 
    C  -2.037447   7.084911  -0.291822   0.450814  -0.042382   0.189618 
    C  -3.543679   6.410508  -0.448379   0.447704   0.277891  -0.060253 
    C  -4.480386   3.837035  -0.215031   0.088981  -0.698831  -0.037713 
    C  -5.871861   3.044272  -0.206495   0.092482  -0.036635  -0.207678 
    C  -5.129511   0.265546  -0.288688   0.258485  -0.117302  -0.080135 
    C  -5.728562  -1.208570  -0.352655   0.227176   0.239046   0.069506 
    C  -4.111896  -3.346147  -0.383311   0.159675  -0.170977   0.281236 
    C  -4.188963  -4.927026  -0.341017   0.120955   0.193533   0.345027 
    C  -1.885409  -5.992633  -0.343186  -0.047913   0.122215  -0.385691 
    C  -0.806229  -7.056292  -0.426908  -0.204331   0.073563   0.061385 
    C   1.851448  -6.525681  -0.120547   0.349031   0.426038  -0.665533 
    C   2.771266  -5.240347  -0.287196  -0.590113   0.484340  -0.558587 
    C   5.086998  -3.902165  -0.443323  -0.414294  -0.171292   0.186303 
    C   4.880430  -2.376648  -0.354753  -0.172665  -0.031938  -0.470322 
    C   6.172125   0.044031  -0.221108  -0.474584  -0.457823  -0.116508 
    C   5.132814   1.173531  -0.353160   0.080723   0.121876  -0.076114 
    C   3.782143   5.611450   0.737651  -0.204554   0.356293  -0.293454 
    C   2.217610   5.592282   0.861763   0.321295  -0.219866  -0.117368 
    C  -0.031444   7.143726   0.881355   0.154497  -0.655999  -0.019771 
    C  -1.306886   6.187464   0.773904   0.262326  -0.204858  -0.009880 
    C  -4.057219   6.089344   1.008172  -0.027745  -0.375819   0.092809 
    C  -5.048356   4.813252   0.779385  -0.337116  -0.320291   0.377823 
    C  -5.164962   2.024052   0.766179  -0.172895   0.669929  -0.133915 
    C  -6.111524   0.817706   0.759174   0.392705   0.119588  -0.396139 
    C  -4.763167  -1.662208   0.726014   0.593697   0.150206   0.297094 
    C  -5.125044  -3.126570   0.762199   0.245624  -0.290819  -0.185381 
    C  -3.119018  -5.027316   0.786178   0.258742   0.469936   0.448480 
    C  -2.915132  -6.532813   0.629103  -0.069839   0.358841   0.471470 
    C  -0.033667  -6.958296   0.964228   0.566700  -0.308969  -0.062655 
    C   0.966691  -5.847304   0.916839   0.417469   0.565101  -0.558447 
    C   3.679251  -5.476762   0.814815   0.113565   0.015746  -0.084026 
    C   4.058429  -4.027132   0.734013   0.197909   0.224124   0.305392 
    C   5.832851  -2.091751   0.783142  -0.077140   0.216015   0.149979 
    C   5.177449  -0.714649   0.727328  -0.173341   0.059650   0.102682 
    C   5.480936   1.911017   0.925396   0.157164   0.227825   0.173470 
    C   4.300762   2.825406   0.648361  -0.172206  -0.013128  -0.008264 
    C   1.986918   6.621302   1.960156   0.444188  -0.227349   0.313946 
    C   0.539562   6.191423   1.936115   0.120333  -0.201247   0.101481 
    C  -2.059314   6.703867   2.001346   0.043767   0.071002  -0.268079 
    C  -2.871999   5.461824   1.707398   0.080115  -0.103674   0.021254 
    C  -4.650220   3.731178   1.960242  -0.190478   0.249484  -0.338721 
    C  -5.888820   2.772509   1.869536   0.185931   0.061883   0.768792 
    C  -5.202428   0.142809   1.831929   0.154113   0.311630   0.175853 
    C  -5.784512  -1.281762   1.809657  -0.017691   0.062204   0.100815 
    C  -4.141296  -3.394716   1.917419   0.123944  -0.054165   0.128675 
    C  -4.177752  -4.969244   1.911975   0.008897   0.095744  -0.387978 
    C  -2.075801  -6.947286   1.915781   0.220279  -0.217705  -0.133188 
    C  -0.824892  -6.035107   1.877845   0.153755  -0.411806   0.343796 
    C   1.864246  -6.325859   2.075916   0.118093   0.172817  -0.534562 
    C   2.640353  -5.031074   1.906235  -0.138268   0.437037  -0.371689 
    C   5.313728  -3.969269   1.712995  -0.166066  -0.075316   0.202229 
    C   4.838776  -2.565850   1.964450   0.278994   0.211974   0.103380 
    C   5.834108  -0.085101   1.936185   0.055828   0.128444   0.213288 
    C   4.693361   0.909913   1.806138  -0.325517   0.381557  -0.001234 
    C   3.832398   3.501187   2.077797  -0.279612  -0.032701  -0.475690 
    C   4.420712   4.936165   1.976700  -0.347720  -0.064636   0.027743 
    C  -0.125459   7.104193   2.966908  -0.078822  -0.159543   0.064072 
    C  -1.188568   6.023463   3.059453  -0.102419  -0.478302   0.125883 
    C  -3.471762   4.916063   3.119510   0.089135   0.428854  -0.270138 
    C  -5.018467   4.705319   3.041087   0.237302   0.023852  -0.190715 
    C  -5.116932   2.005609   3.024987  -0.224606  -0.345372  -0.249245 
    C  -6.114974   0.792831   2.936562   0.361518  -0.243877  -0.230822 
    C  -4.895893  -1.675729   2.995639   0.367387   0.219492  -0.120328 
    C  -5.259103  -3.182608   3.033879   0.491420   0.018966  -0.379254 
    C  -3.181597  -5.121683   3.039366   0.337752   0.905792   0.068639 
    C  -3.037156  -6.620262   3.048354   0.139179   0.261759   0.316660 
    C  -0.072913  -6.681322   3.102711  -0.182302  -0.084668   0.230051 
    C   1.034951  -5.630878   3.130021  -0.098666   0.049165  -0.334874 
    C   3.375900  -4.649302   3.209785   0.276244   0.137911   0.272414 
    C   4.924744  -4.891333   2.929370  -0.439566  -0.170126  -0.129080 
    C   5.892405  -2.154829   3.023784  -0.335493  -0.214412   0.213337 
    C   5.136066  -0.821048   3.105558  -0.136995   0.059232  -0.103338 
    C   4.474020   1.643145   3.242618  -0.096121   0.121243  -0.216665 
    C   4.883814   3.176618   3.052309  -0.018611  -0.310017   0.095463 
    C   3.714082   5.766969   3.106739   0.190634  -0.319912   0.151412 
    C   2.254217   5.379037   2.953121  -0.277493   0.717406   0.016060 
    C  -1.960978   6.612051   4.262519   0.039989   0.101113  -0.284279 
    C  -3.419025   6.021973   4.239867  -0.286412  -0.292555  -0.028357 
    C  -4.649239   3.581171   4.061493   0.272198   0.840322   0.256315 
    C  -5.879851   2.748449   4.070753  -0.401052   0.334356  -0.125072 
    C  -5.308226   0.119327   4.059628   0.216266   0.248280   0.102164 
    C  -5.904451  -1.276600   4.047808   0.079072   0.017057   0.088565 
    C  -4.272830  -3.460007   4.164265   0.309323  -0.110091  -0.062829 
    C  -4.292690  -5.005895   4.076926  -0.022301  -0.206494   0.108999 
    C  -2.054897  -7.007188   4.249524   0.005700   0.340015  -0.154822 
    C  -0.856323  -5.917781   4.212989  -0.465285  -0.217798   0.158652 
    C   1.790877  -6.369585   4.266242   0.066835   0.060292  -0.466746 
    C   3.359291  -5.873728   4.132453  -0.130199   0.015108  -0.111657 
    C   5.707299  -4.160408   4.049610  -0.093885  -0.096510   0.131948 
    C   5.030766  -2.809792   4.208822   0.068833   0.679537  -0.108879 
    C   6.133854  -0.271118   4.122343  -0.393513   0.455898   0.153758 
    C   5.742158   1.364654   4.091539   0.173397   0.061828   0.429556 
    C   4.001438   3.436212   4.251742  -0.500373   0.323607  -0.162319 
    C   4.251256   4.948234   4.403339  -0.058412   0.142389   0.163086 
    C   1.561561   5.693074   4.321323   0.008532  -0.243928   0.429683 
    C   0.803507   6.910746   4.227787  -0.467991   0.062159   0.012894 
    C  -3.358593   4.767908   5.168320   0.126540  -0.034288  -0.094255 
    C  -4.884764   4.592255   5.301617   0.016059  -0.281970  -0.379213 
    C  -5.269134   1.948341   5.163299  -0.042438  -0.068432   0.217126 
    C  -6.214221   0.736935   5.192519   0.212564  -0.038852  -0.065829 
    C  -4.954481  -1.678208   5.175769   0.254247  -0.225933   0.345597 
    C  -5.374766  -3.190511   5.235591   0.413125  -0.301028  -0.031653 
    C  -3.317352  -5.059111   5.243995  -0.018305   0.263977   0.320363 
    C  -3.056648  -6.528123   5.380172   0.191985  -0.404442  -0.234705 
    C  -0.134282  -6.621246   5.398518   0.415719  -0.173265  -0.352400 
    C   1.109017  -5.587363   5.351305   0.093771   0.237577  -0.291042 
    C   3.643186  -4.843562   5.234407  -0.439425   0.049158   0.555016 
    C   5.201482  -5.011732   5.287684  -0.272161   0.184956  -0.286735 
    C   6.041311  -2.213558   5.271425  -0.142366  -0.144072  -0.159688 
    C   5.226976  -0.901962   5.244129   0.438527   0.377438   0.519773 
    C   4.766950   1.645003   5.276143  -0.423737  -0.014643  -0.205918 
    C   5.096453   3.142519   5.287110  -0.099701  -0.016658   0.250205 
    C   3.090003   4.883913   5.462910  -0.300141   0.052661   0.099784 
    C   2.665427   6.308347   5.277259   0.214394   0.263736   0.225592 
    C  -0.088811   7.026766   5.547175   0.241551  -0.075652  -0.024584 
    C  -1.108637   5.933228   5.365357   0.034520  -0.328679  -0.282720 
    C  -4.587599   3.602631   6.352921  -0.471937  -0.491182   0.210351 
    C  -5.880717   2.751759   6.296539  -0.520341  -0.084265  -0.018847 
    C  -5.321188   0.115283   6.314837   0.070381  -0.058194  -0.301035 
    C  -6.010218  -1.315050   6.209652   0.556543   0.532277   0.392449 
    C  -4.361040  -3.579578   6.460961  -0.173114   0.042264  -0.280398 
    C  -4.557672  -5.097422   6.243180  -0.128887   0.266593   0.073874 
    C  -2.072636  -6.691652   6.631117  -0.154126   0.074533  -0.022184 
    C  -0.783837  -5.841167   6.524247   0.086774  -0.051493  -0.481844 
    C   1.940474  -6.264406   6.434710  -0.199107  -0.136297   0.214061 
    C   3.520652  -5.817813   6.442513  -0.320084   0.261811  -0.093602 
    C   5.834240  -4.070382   6.391250  -0.214277  -0.379185   0.296234 
    C   5.168886  -2.682068   6.440887   0.167447  -0.111103  -0.110839 
    C   6.158020  -0.170194   6.332065  -0.244175   0.108098  -0.244343 
    C   5.155088   1.014282   6.593931  -0.316124  -0.524305   0.279155 
    C   4.200854   3.345411   6.540381  -0.230603   0.113286  -0.320778 
    C   4.117442   4.928505   6.582483  -0.217135  -0.155589  -0.083624 
    C   1.938709   6.755706   6.633685  -0.118668   0.244611  -0.054482 
    C   0.625326   6.117081   6.615368  -0.123922  -0.665190  -0.056266 
    C  -2.005913   6.523003   6.423698   0.206664  -0.261664   0.515654 
    C  -2.791905   5.269360   6.590169   0.128274  -0.797686   0.072081 
    C  -5.244911   1.918484   7.392900  -0.042205   0.100670   0.238525 
    C  -6.140210   0.728406   7.473210   0.124715  -0.137790  -0.170705 
    C  -5.058844  -1.793937   7.409219   0.155565   0.058822   0.062782 
    C  -5.471489  -3.363672   7.457965   0.145661   0.387555   0.276401 
    C  -4.068492  -5.874346   7.539873   0.194288   0.413325   0.413969 
    C  -2.536822  -5.597695   7.619948  -0.296377   0.336222  -0.325577 
    C  -0.001612  -6.607945   7.669141  -0.024921   0.167605  -0.171279 
    C   1.187971  -5.579806   7.640192  -0.310749   0.281364   0.020816 
    C   3.653132  -4.627835   7.451495  -0.359940   0.320175  -0.351802 
    C   5.149015  -4.852687   7.586058   0.008357  -0.198557  -0.168595 
    C   6.205727  -2.208038   7.492481   0.087098  -0.067043  -0.070608 
    C   5.502518  -0.847823   7.522706   0.128436   0.259679   0.370428 
    C   6.058026   1.881730   7.380555  -0.003166  -0.080836   0.495365 
    C   5.398038   3.334052   7.498854  -0.145359  -0.029295  -0.318406 
    C   3.026802   4.754988   7.649868   0.073726   0.070967   0.178654 
    C   2.708915   6.262166   7.947005  -0.003779  -0.118578  -0.257359 
    C   0.014788   6.971474   7.724887  -0.457319  -0.147977  -0.410897 
    C  -1.248563   5.983434   7.749881   0.265623  -0.060822   0.108417 
    C  -3.991106   5.712932   7.407202  -0.008893   0.079589   0.034269 
    C  -5.098867   4.530436   7.535018   0.350260  -0.098871  -0.050092 
    C  -5.056836   0.079834   8.407293  -0.039241   0.544016  -0.015125 
    C  -5.888355  -1.162318   8.618450   0.505801  -0.164684  -0.069409 
    C  -4.536805  -3.579470   8.648325   0.291642  -0.479573   0.061240 
    C  -4.636197  -5.142421   8.827021  -0.248828   0.324248   0.479195 
    C  -2.086830  -6.631441   8.601067   0.100043   0.165082   0.058538 
    C  -0.730498  -5.934087   8.834111   0.167668   0.743588   0.035527 
    C   2.058046  -6.295018   8.537333   0.344149  -0.337109  -0.073143 